mesh:
  ts:
    0:
      - ps:
          x: 41
          y: 18467
          z: 6334
      - ps:
          x: 26500
          y: 19169
          z: 15724
      - ps:
          x: 11478
          y: 29358
          z: 26962
      - ps:
          x: 24464
          y: 5705
          z: 28145
      - ps:
          x: 23281
          y: 16827
          z: 9961
      - ps:
          x: 491
          y: 2995
          z: 11942
      - ps:
          x: 4827
          y: 5436
          z: 32391
      - ps:
          x: 14604
          y: 3902
          z: 153
      - ps:
          x: 292
          y: 12382
          z: 17421
    1:
      - ps:
          x: 18716
          y: 19718
          z: 19895
      - ps:
          x: 5447
          y: 21726
          z: 14771
      - ps:
          x: 11538
          y: 1869
          z: 19912
      - ps:
          x: 25667
          y: 26299
          z: 17035
      - ps:
          x: 9894
          y: 28703
          z: 23811
      - ps:
          x: 31322
          y: 30333
          z: 17673
      - ps:
          x: 4664
          y: 15141
          z: 7711
      - ps:
          x: 28253
          y: 6868
          z: 25547
      - ps:
          x: 27644
          y: 32662
          z: 32757
    2:
      - ps:
          x: 20037
          y: 12859
          z: 8723
      - ps:
          x: 9741
          y: 27529
          z: 778
      - ps:
          x: 12316
          y: 3035
          z: 22190
      - ps:
          x: 1842
          y: 288
          z: 30106
      - ps:
          x: 9040
          y: 8942
          z: 19264
      - ps:
          x: 22648
          y: 27446
          z: 23805
      - ps:
          x: 15890
          y: 6729
          z: 24370
      - ps:
          x: 15350
          y: 15006
          z: 31101
      - ps:
          x: 24393
          y: 3548
          z: 19629
    3:
      - ps:
          x: 12623
          y: 24084
          z: 19954
      - ps:
          x: 18756
          y: 11840
          z: 4966
      - ps:
          x: 7376
          y: 13931
          z: 26308
      - ps:
          x: 16944
          y: 32439
          z: 24626
      - ps:
          x: 11323
          y: 5537
          z: 21538
      - ps:
          x: 16118
          y: 2082
          z: 22929
      - ps:
          x: 16541
          y: 4833
          z: 31115
      - ps:
          x: 4639
          y: 29658
          z: 22704
      - ps:
          x: 9930
          y: 13977
          z: 2306
    4:
      - ps:
          x: 31673
          y: 22386
          z: 5021
      - ps:
          x: 28745
          y: 26924
          z: 19072
      - ps:
          x: 6270
          y: 5829
          z: 26777
      - ps:
          x: 15573
          y: 5097
          z: 16512
      - ps:
          x: 23986
          y: 13290
          z: 9161
      - ps:
          x: 18636
          y: 22355
          z: 24767
      - ps:
          x: 23655
          y: 15574
          z: 4031
      - ps:
          x: 12052
          y: 27350
          z: 1150
      - ps:
          x: 16941
          y: 21724
          z: 13966
    5:
      - ps:
          x: 3430
          y: 31107
          z: 30191
      - ps:
          x: 18007
          y: 11337
          z: 15457
      - ps:
          x: 12287
          y: 27753
          z: 10383
      - ps:
          x: 14945
          y: 8909
          z: 32209
      - ps:
          x: 9758
          y: 24221
          z: 18588
      - ps:
          x: 6422
          y: 24946
          z: 27506
      - ps:
          x: 13030
          y: 16413
          z: 29168
      - ps:
          x: 900
          y: 32591
          z: 18762
      - ps:
          x: 1655
          y: 17410
          z: 6359
    6:
      - ps:
          x: 27624
          y: 20537
          z: 21548
      - ps:
          x: 6483
          y: 27595
          z: 4041
      - ps:
          x: 3602
          y: 24350
          z: 10291
      - ps:
          x: 30836
          y: 9374
          z: 11020
      - ps:
          x: 4596
          y: 24021
          z: 27348
      - ps:
          x: 23199
          y: 19668
          z: 24484
      - ps:
          x: 8281
          y: 4734
          z: 53
      - ps:
          x: 1999
          y: 26418
          z: 27938
      - ps:
          x: 6900
          y: 3788
          z: 18127
    7:
      - ps:
          x: 467
          y: 3728
          z: 14893
      - ps:
          x: 24648
          y: 22483
          z: 17807
      - ps:
          x: 2421
          y: 14310
          z: 6617
      - ps:
          x: 22813
          y: 9514
          z: 14309
      - ps:
          x: 7616
          y: 18935
          z: 17451
      - ps:
          x: 20600
          y: 5249
          z: 16519
      - ps:
          x: 31556
          y: 22798
          z: 30303
      - ps:
          x: 6224
          y: 11008
          z: 5844
      - ps:
          x: 32609
          y: 14989
          z: 32702
    8:
      - ps:
          x: 3195
          y: 20485
          z: 3093
      - ps:
          x: 14343
          y: 30523
          z: 1587
      - ps:
          x: 29314
          y: 9503
          z: 7448
      - ps:
          x: 25200
          y: 13458
          z: 6618
      - ps:
          x: 20580
          y: 19796
          z: 14798
      - ps:
          x: 15281
          y: 19589
          z: 20798
      - ps:
          x: 28009
          y: 27157
          z: 20472
      - ps:
          x: 23622
          y: 18538
          z: 12292
      - ps:
          x: 6038
          y: 24179
          z: 18190
    9:
      - ps:
          x: 29657
          y: 7958
          z: 6191
      - ps:
          x: 19815
          y: 22888
          z: 19156
      - ps:
          x: 11511
          y: 16202
          z: 2634
      - ps:
          x: 24272
          y: 20055
          z: 20328
      - ps:
          x: 22646
          y: 26362
          z: 4886
      - ps:
          x: 18875
          y: 28433
          z: 29869
      - ps:
          x: 20142
          y: 23844
          z: 1416
      - ps:
          x: 21881
          y: 31998
          z: 10322
      - ps:
          x: 18651
          y: 10021
          z: 5699